<?xml version="1.0" encoding="UTF-8"?>

<!-- generated on 2026-03-23T19:29:45.968122+05:30 by Eclipse SUMO GUI 1.26.0
<sumoConfiguration xmlns:xsi="http://www.w3.org/2001/XMLSchema-instance" xsi:noNamespaceSchemaLocation="http://sumo.dlr.de/xsd/sumoConfiguration.xsd">

    <input>
        <net-file value="sumo/intersection.net.xml"/>
        <route-files value="sumo/intersection.rou.xml"/>
    </input>

    <output>
        <emission-output value="sumo/output/emissions.xml"/>
        <tripinfo-output value="sumo/output/tripinfo.xml"/>
    </output>

    <time>
        <begin value="0"/>
        <end value="3600"/>
        <step-length value="1.0"/>
    </time>

    <processing>
        <ignore-route-errors value="true"/>
        <collision.action value="warn"/>
        <time-to-teleport value="300"/>
        <max-depart-delay value="120"/>
    </processing>

    <report>
        <no-warnings value="true"/>
        <duration-log.statistics value="true"/>
        <no-step-log value="true"/>
    </report>

    <traci_server>
        <remote-port value="8814"/>
    </traci_server>

    <random_number>
        <seed value="42"/>
    </random_number>

    <gui_only>
        <quit-on-end value="false"/>
        <start value="true"/>
    </gui_only>

</sumoConfiguration>
-->

<emission-export xmlns:xsi="http://www.w3.org/2001/XMLSchema-instance" xsi:noNamespaceSchemaLocation="http://sumo.dlr.de/xsd/emission_file.xsd">
    <timestep time="0.00">
        <vehicle id="flow_buses_ns.0" eclass="HBEFA4/UBus_Std_gt15-18t_Euro-VI_A-C" CO2="2775.00" CO="2.08" HC="0.13" NOx="4.33" PMx="1.49" fuel="891.80" electricity="0.00" noise="67.11" route="north_to_south" type="bus" waiting="0.00" lane="north_in_1" pos="12.10" speed="0.00" angle="180.00" x="195.20" y="387.90"/>
        <vehicle id="flow_east_west.0" eclass="HBEFA4/PC_petrol_Euro-4" CO2="2058.86" CO="8.20" HC="0.06" NOx="0.76" PMx="0.40" fuel="667.46" electricity="0.00" noise="64.57" route="east_to_west" type="car" waiting="0.00" lane="east_in_0" pos="4.60" speed="13.89" angle="270.00" x="395.40" y="208.00"/>
        <vehicle id="flow_north_east_turn.0" eclass="HBEFA4/PC_petrol_Euro-4" CO2="1521.00" CO="0.00" HC="0.00" NOx="0.61" PMx="0.00" fuel="493.10" electricity="0.00" noise="55.94" route="north_to_east" type="car" waiting="0.00" lane="north_in_2" pos="4.60" speed="0.00" angle="180.00" x="198.40" y="395.40"/>
        <vehicle id="flow_north_south.0" eclass="HBEFA4/PC_petrol_Euro-4" CO2="2000.36" CO="6.99" HC="0.05" NOx="0.74" PMx="0.38" fuel="648.50" electricity="0.00" noise="64.06" route="north_to_south" type="car" waiting="0.00" lane="north_in_0" pos="4.60" speed="13.17" angle="180.00" x="192.00" y="395.40"/>
        <vehicle id="flow_south_north.0" eclass="HBEFA4/PC_petrol_Euro-4" CO2="2058.86" CO="8.20" HC="0.06" NOx="0.76" PMx="0.40" fuel="667.46" electricity="0.00" noise="64.57" route="south_to_north" type="car" waiting="0.00" lane="south_in_0" pos="4.60" speed="13.89" angle="0.00" x="208.00" y="4.60"/>
        <vehicle id="flow_south_west_turn.0" eclass="HBEFA4/PC_petrol_Euro-4" CO2="1521.00" CO="0.00" HC="0.00" NOx="0.61" PMx="0.00" fuel="493.10" electricity="0.00" noise="55.94" route="south_to_west" type="car" waiting="0.00" lane="south_in_2" pos="4.60" speed="0.00" angle="0.00" x="201.60" y="4.60"/>
        <vehicle id="flow_trucks_we.0" eclass="HBEFA4/RT_le7.5t_Euro-VI_A-C" CO2="1936.00" CO="1.05" HC="0.09" NOx="0.12" PMx="1.48" fuel="622.10" electricity="0.00" noise="67.11" route="west_to_east" type="truck" waiting="0.00" lane="west_in_1" pos="12.10" speed="0.00" angle="90.00" x="12.10" y="195.20"/>
        <vehicle id="flow_west_east.0" eclass="HBEFA4/PC_petrol_Euro-4" CO2="1931.68" CO="5.61" HC="0.04" NOx="0.71" PMx="0.35" fuel="626.24" electricity="0.00" noise="63.40" route="west_to_east" type="car" waiting="0.00" lane="west_in_0" pos="4.60" speed="12.24" angle="90.00" x="4.60" y="192.00"/>
    </timestep>
    <timestep time="1.00">
        <vehicle id="flow_buses_ns.0" eclass="HBEFA4/UBus_Std_gt15-18t_Euro-VI_A-C" CO2="7492.20" CO="3.84" HC="0.19" NOx="4.35" PMx="1.49" fuel="2407.71" electricity="0.00" noise="72.92" route="north_to_south" type="bus" waiting="0.00" lane="north_in_1" pos="13.07" speed="0.97" angle="180.00" x="195.20" y="386.93"/>
        <vehicle id="flow_east_west.0" eclass="HBEFA4/PC_petrol_Euro-4" CO2="1409.70" CO="0.96" HC="0.01" NOx="0.53" PMx="0.38" fuel="457.02" electricity="0.00" noise="63.98" route="east_to_west" type="car" waiting="0.00" lane="east_in_0" pos="18.29" speed="13.69" angle="270.00" x="381.71" y="208.00"/>
        <vehicle id="flow_north_east_turn.0" eclass="HBEFA4/PC_petrol_Euro-4" CO2="3951.09" CO="2.38" HC="0.02" NOx="0.88" PMx="0.07" fuel="1280.83" electricity="0.00" noise="67.12" route="north_to_east" type="car" waiting="0.00" lane="north_in_2" pos="6.94" speed="2.34" angle="180.00" x="198.40" y="393.06"/>
        <vehicle id="flow_north_south.0" eclass="HBEFA4/PC_petrol_Euro-4" CO2="1572.61" CO="2.45" HC="0.02" NOx="0.59" PMx="0.36" fuel="509.83" electricity="0.00" noise="63.64" route="north_to_south" type="car" waiting="0.00" lane="north_in_0" pos="17.63" speed="13.03" angle="180.00" x="192.00" y="382.37"/>
        <vehicle id="flow_south_north.0" eclass="HBEFA4/PC_petrol_Euro-4" CO2="1854.13" CO="5.89" HC="0.04" NOx="0.69" PMx="0.39" fuel="601.10" electricity="0.00" noise="64.38" route="south_to_north" type="car" waiting="0.00" lane="south_in_0" pos="18.43" speed="13.83" angle="0.00" x="208.00" y="18.43"/>
        <vehicle id="flow_south_west_turn.0" eclass="HBEFA4/PC_petrol_Euro-4" CO2="3401.03" CO="1.32" HC="0.01" NOx="0.79" PMx="0.05" fuel="1102.52" electricity="0.00" noise="65.13" route="south_to_west" type="car" waiting="0.00" lane="south_in_2" pos="6.52" speed="1.92" angle="0.00" x="201.60" y="6.52"/>
        <vehicle id="flow_trucks_we.0" eclass="HBEFA4/RT_le7.5t_Euro-VI_A-C" CO2="2803.44" CO="2.50" HC="0.11" NOx="0.42" PMx="1.54" fuel="900.86" electricity="0.00" noise="74.44" route="west_to_east" type="truck" waiting="0.00" lane="west_in_1" pos="13.32" speed="1.22" angle="90.00" x="13.32" y="195.20"/>
        <vehicle id="flow_west_east.0" eclass="HBEFA4/PC_petrol_Euro-4" CO2="1758.85" CO="3.90" HC="0.03" NOx="0.65" PMx="0.34" fuel="570.21" electricity="0.00" noise="63.20" route="west_to_east" type="car" waiting="0.00" lane="west_in_0" pos="16.78" speed="12.18" angle="90.00" x="16.78" y="192.00"/>
    </timestep>
    <timestep time="2.00">
        <vehicle id="flow_buses_ns.0" eclass="HBEFA4/UBus_Std_gt15-18t_Euro-VI_A-C" CO2="10647.60" CO="4.08" HC="0.21" NOx="4.42" PMx="1.50" fuel="3421.77" electricity="0.00" noise="74.07" route="north_to_south" type="bus" waiting="0.00" lane="north_in_1" pos="15.13" speed="2.06" angle="180.00" x="195.20" y="384.87"/>
        <vehicle id="flow_east_west.0" eclass="HBEFA4/PC_petrol_Euro-4" CO2="1869.74" CO="5.94" HC="0.04" NOx="0.69" PMx="0.39" fuel="606.16" electricity="0.00" noise="64.27" route="east_to_west" type="car" waiting="0.00" lane="east_in_0" pos="31.93" speed="13.64" angle="270.00" x="368.07" y="208.00"/>
        <vehicle id="flow_north_east_turn.0" eclass="HBEFA4/PC_petrol_Euro-4" CO2="4357.10" CO="7.51" HC="0.05" NOx="1.12" PMx="0.13" fuel="1412.48" electricity="0.00" noise="66.73" route="north_to_east" type="car" waiting="0.00" lane="north_in_2" pos="11.33" speed="4.39" angle="180.00" x="198.40" y="388.67"/>
        <vehicle id="flow_north_south.0" eclass="HBEFA4/PC_petrol_Euro-4" CO2="0.00" CO="0.00" HC="0.00" NOx="0.00" PMx="0.00" fuel="0.00" electricity="0.00" noise="60.84" route="north_to_south" type="car" waiting="0.00" lane="north_in_0" pos="29.51" speed="11.88" angle="180.00" x="192.00" y="370.49"/>
        <vehicle id="flow_south_north.0" eclass="HBEFA4/PC_petrol_Euro-4" CO2="0.00" CO="0.00" HC="0.00" NOx="0.00" PMx="0.00" fuel="0.00" electricity="0.00" noise="61.70" route="south_to_north" type="car" waiting="0.00" lane="south_in_0" pos="31.16" speed="12.74" angle="0.00" x="208.00" y="31.16"/>
        <vehicle id="flow_south_west_turn.0" eclass="HBEFA4/PC_petrol_Euro-4" CO2="3688.87" CO="4.33" HC="0.03" NOx="0.95" PMx="0.10" fuel="1195.85" electricity="0.00" noise="64.96" route="south_to_west" type="car" waiting="0.00" lane="south_in_2" pos="10.16" speed="3.64" angle="0.00" x="201.60" y="10.16"/>
        <vehicle id="flow_trucks_we.0" eclass="HBEFA4/RT_le7.5t_Euro-VI_A-C" CO2="3491.13" CO="2.36" HC="0.11" NOx="0.71" PMx="1.54" fuel="1121.86" electricity="0.00" noise="74.21" route="west_to_east" type="truck" waiting="0.00" lane="west_in_1" pos="15.64" speed="2.32" angle="90.00" x="15.64" y="195.20"/>
        <vehicle id="flow_west_east.0" eclass="HBEFA4/PC_petrol_Euro-4" CO2="0.00" CO="0.00" HC="0.00" NOx="0.00" PMx="0.00" fuel="0.00" electricity="0.00" noise="61.33" route="west_to_east" type="car" waiting="0.00" lane="west_in_0" pos="28.29" speed="11.51" angle="90.00" x="28.29" y="192.00"/>
    </timestep>
    <timestep time="3.00">
        <vehicle id="flow_buses_ns.0" eclass="HBEFA4/UBus_Std_gt15-18t_Euro-VI_A-C" CO2="12446.16" CO="3.95" HC="0.22" NOx="4.51" PMx="1.51" fuel="3999.80" electricity="0.00" noise="74.06" route="north_to_south" type="bus" waiting="0.00" lane="north_in_1" pos="18.19" speed="3.06" angle="180.00" x="195.20" y="381.81"/>
        <vehicle id="flow_east_west.0" eclass="HBEFA4/PC_petrol_Euro-4" CO2="2297.59" CO="10.66" HC="0.07" NOx="0.84" PMx="0.40" fuel="744.86" electricity="0.00" noise="64.64" route="east_to_west" type="car" waiting="0.00" lane="east_in_0" pos="45.64" speed="13.72" angle="270.00" x="354.36" y="208.00"/>
        <vehicle id="flow_north_east_turn.0" eclass="HBEFA4/PC_petrol_Euro-4" CO2="4181.32" CO="10.97" HC="0.07" NOx="1.19" PMx="0.18" fuel="1355.51" electricity="0.00" noise="65.40" route="north_to_east" type="car" waiting="0.00" lane="north_in_2" pos="17.30" speed="5.97" angle="180.00" x="198.40" y="382.70"/>
        <vehicle id="flow_north_south.0" eclass="HBEFA4/PC_petrol_Euro-4" CO2="3091.07" CO="16.92" HC="0.11" NOx="1.10" PMx="0.37" fuel="1002.09" electricity="0.00" noise="64.55" route="north_to_south" type="car" waiting="0.00" lane="north_in_0" pos="41.79" speed="12.28" angle="180.00" x="192.00" y="358.21"/>
        <vehicle id="flow_south_north.0" eclass="HBEFA4/PC_petrol_Euro-4" CO2="2792.03" CO="15.04" HC="0.10" NOx="1.01" PMx="0.39" fuel="905.14" electricity="0.00" noise="64.64" route="south_to_north" type="car" waiting="0.00" lane="south_in_0" pos="44.17" speed="13.00" angle="0.00" x="208.00" y="44.17"/>
        <vehicle id="flow_south_west_turn.0" eclass="HBEFA4/PC_petrol_Euro-4" CO2="4157.54" CO="9.27" HC="0.06" NOx="1.14" PMx="0.16" fuel="1347.79" electricity="0.00" noise="65.58" route="south_to_west" type="car" waiting="0.00" lane="south_in_2" pos="15.50" speed="5.33" angle="0.00" x="201.60" y="15.50"/>
        <vehicle id="flow_trucks_we.0" eclass="HBEFA4/RT_le7.5t_Euro-VI_A-C" CO2="4853.84" CO="2.58" HC="0.13" NOx="1.11" PMx="1.55" fuel="1559.79" electricity="0.00" noise="75.77" route="west_to_east" type="truck" waiting="0.00" lane="west_in_1" pos="19.22" speed="3.59" angle="90.00" x="19.22" y="195.20"/>
        <vehicle id="flow_west_east.0" eclass="HBEFA4/PC_petrol_Euro-4" CO2="2572.47" CO="11.22" HC="0.08" NOx="0.92" PMx="0.34" fuel="833.97" electricity="0.00" noise="63.73" route="west_to_east" type="car" waiting="0.00" lane="west_in_0" pos="40.05" speed="11.76" angle="90.00" x="40.05" y="192.00"/>
    </timestep>
    <timestep time="4.00">
        <vehicle id="flow_buses_ns.0" eclass="HBEFA4/UBus_Std_gt15-18t_Euro-VI_A-C" CO2="14460.88" CO="3.93" HC="0.23" NOx="4.64" PMx="1.53" fuel="4647.29" electricity="0.00" noise="74.40" route="north_to_south" type="bus" waiting="0.00" lane="north_in_1" pos="22.24" speed="4.05" angle="180.00" x="195.20" y="377.76"/>
        <vehicle id="flow_east_west.0" eclass="HBEFA4/PC_petrol_Euro-4" CO2="1469.84" CO="1.56" HC="0.01" NOx="0.55" PMx="0.38" fuel="476.52" electricity="0.00" noise="63.91" route="east_to_west" type="car" waiting="0.00" lane="east_in_0" pos="59.18" speed="13.54" angle="270.00" x="340.82" y="208.00"/>
        <vehicle id="flow_north_east_turn.0" eclass="HBEFA4/PC_petrol_Euro-4" CO2="4261.74" CO="15.00" HC="0.10" NOx="1.28" PMx="0.23" fuel="1381.59" electricity="0.00" noise="65.27" route="north_to_east" type="car" waiting="0.00" lane="north_in_2" pos="24.66" speed="7.36" angle="180.00" x="198.40" y="375.34"/>
        <vehicle id="flow_north_south.0" eclass="HBEFA4/PC_petrol_Euro-4" CO2="2992.13" CO="16.52" HC="0.11" NOx="1.07" PMx="0.38" fuel="970.01" electricity="0.00" noise="64.63" route="north_to_south" type="car" waiting="0.00" lane="north_in_0" pos="54.43" speed="12.64" angle="180.00" x="192.00" y="345.57"/>
        <vehicle id="flow_south_north.0" eclass="HBEFA4/PC_petrol_Euro-4" CO2="2422.11" CO="11.38" HC="0.08" NOx="0.88" PMx="0.38" fuel="785.22" electricity="0.00" noise="64.39" route="south_to_north" type="car" waiting="0.00" lane="south_in_0" pos="57.31" speed="13.14" angle="0.00" x="208.00" y="57.31"/>
        <vehicle id="flow_south_west_turn.0" eclass="HBEFA4/PC_petrol_Euro-4" CO2="5188.16" CO="19.55" HC="0.13" NOx="1.51" PMx="0.23" fuel="1681.91" electricity="0.00" noise="67.41" route="south_to_west" type="car" waiting="0.00" lane="south_in_2" pos="22.74" speed="7.25" angle="0.00" x="201.60" y="22.74"/>
        <vehicle id="flow_trucks_we.0" eclass="HBEFA4/RT_le7.5t_Euro-VI_A-C" CO2="6041.13" CO="2.59" HC="0.14" NOx="1.54" PMx="1.56" fuel="1941.36" electricity="0.00" noise="76.33" route="west_to_east" type="truck" waiting="0.00" lane="west_in_1" pos="24.07" speed="4.85" angle="90.00" x="24.07" y="195.20"/>
        <vehicle id="flow_west_east.0" eclass="HBEFA4/PC_petrol_Euro-4" CO2="1510.46" CO="1.32" HC="0.01" NOx="0.57" PMx="0.32" fuel="489.69" electricity="0.00" noise="62.59" route="west_to_east" type="car" waiting="0.00" lane="west_in_0" pos="51.67" speed="11.62" angle="90.00" x="51.67" y="192.00"/>
    </timestep>
    <timestep time="5.00">
        <vehicle id="flow_buses_ns.0" eclass="HBEFA4/UBus_Std_gt15-18t_Euro-VI_A-C" CO2="17119.50" CO="4.03" HC="0.25" NOx="4.84" PMx="1.55" fuel="5501.71" electricity="0.00" noise="75.10" route="north_to_south" type="bus" waiting="0.00" lane="north_in_1" pos="27.30" speed="5.06" angle="180.00" x="195.20" y="372.70"/>
        <vehicle id="flow_east_west.0" eclass="HBEFA4/PC_petrol_Euro-4" CO2="1654.48" CO="3.49" HC="0.03" NOx="0.62" PMx="0.38" fuel="536.37" electricity="0.00" noise="63.96" route="east_to_west" type="car" waiting="0.00" lane="east_in_0" pos="72.60" speed="13.42" angle="270.00" x="327.40" y="208.00"/>
        <vehicle id="flow_north_east_turn.0" eclass="HBEFA4/PC_petrol_Euro-4" CO2="4904.09" CO="23.32" HC="0.15" NOx="1.53" PMx="0.28" fuel="1589.83" electricity="0.00" noise="66.40" route="north_to_east" type="car" waiting="0.00" lane="north_in_2" pos="33.50" speed="8.84" angle="180.00" x="198.40" y="366.50"/>
        <vehicle id="flow_north_south.0" eclass="HBEFA4/PC_petrol_Euro-4" CO2="1488.31" CO="1.39" HC="0.01" NOx="0.56" PMx="0.34" fuel="482.50" electricity="0.00" noise="63.18" route="north_to_south" type="car" waiting="0.00" lane="north_in_0" pos="66.90" speed="12.48" angle="180.00" x="192.00" y="333.10"/>
        <vehicle id="flow_south_north.0" eclass="HBEFA4/PC_petrol_Euro-4" CO2="0.00" CO="0.00" HC="0.00" NOx="0.00" PMx="0.00" fuel="0.00" electricity="0.00" noise="63.16" route="south_to_north" type="car" waiting="0.00" lane="south_in_0" pos="70.16" speed="12.85" angle="0.00" x="208.00" y="70.16"/>
        <vehicle id="flow_south_west_turn.0" eclass="HBEFA4/PC_petrol_Euro-4" CO2="6860.63" CO="39.76" HC="0.26" NOx="2.14" PMx="0.34" fuel="2224.10" electricity="0.00" noise="69.90" route="south_to_west" type="car" waiting="0.00" lane="south_in_2" pos="32.24" speed="9.49" angle="0.00" x="201.60" y="32.24"/>
        <vehicle id="flow_trucks_we.0" eclass="HBEFA4/RT_le7.5t_Euro-VI_A-C" CO2="7874.04" CO="2.73" HC="0.16" NOx="2.09" PMx="1.59" fuel="2530.41" electricity="0.00" noise="77.60" route="west_to_east" type="truck" waiting="0.00" lane="west_in_1" pos="30.28" speed="6.21" angle="90.00" x="30.28" y="195.20"/>
        <vehicle id="flow_west_east.0" eclass="HBEFA4/PC_petrol_Euro-4" CO2="2758.69" CO="13.19" HC="0.09" NOx="0.98" PMx="0.35" fuel="894.34" electricity="0.00" noise="64.02" route="west_to_east" type="car" waiting="0.00" lane="west_in_0" pos="63.59" speed="11.92" angle="90.00" x="63.59" y="192.00"/>
    </timestep>
    <timestep time="6.00">
        <vehicle id="flow_buses_ns.0" eclass="HBEFA4/UBus_Std_gt15-18t_Euro-VI_A-C" CO2="21291.26" CO="4.32" HC="0.29" NOx="5.20" PMx="1.60" fuel="6842.42" electricity="0.00" noise="76.36" route="north_to_south" type="bus" waiting="0.00" lane="north_in_1" pos="33.50" speed="6.20" angle="180.00" x="195.20" y="366.50"/>
        <vehicle id="flow_east_west.0" eclass="HBEFA4/PC_petrol_Euro-4" CO2="2494.15" CO="12.63" HC="0.09" NOx="0.91" PMx="0.40" fuel="808.58" electricity="0.00" noise="64.70" route="east_to_west" type="car" waiting="0.00" lane="east_in_0" pos="86.16" speed="13.57" angle="270.00" x="313.84" y="208.00"/>
        <vehicle id="flow_north_east_turn.0" eclass="HBEFA4/PC_petrol_Euro-4" CO2="8333.71" CO="61.87" HC="0.41" NOx="2.75" PMx="0.43" fuel="2701.65" electricity="0.00" noise="71.64" route="north_to_east" type="car" waiting="0.00" lane="north_in_2" pos="44.80" speed="11.30" angle="180.00" x="198.40" y="355.20"/>
        <vehicle id="flow_north_south.0" eclass="HBEFA4/PC_petrol_Euro-4" CO2="3811.38" CO="25.74" HC="0.17" NOx="1.36" PMx="0.41" fuel="1235.60" electricity="0.00" noise="65.65" route="north_to_south" type="car" waiting="0.00" lane="north_in_0" pos="79.98" speed="13.08" angle="180.00" x="192.00" y="320.02"/>
        <vehicle id="flow_south_north.0" eclass="HBEFA4/PC_petrol_Euro-4" CO2="2790.28" CO="15.18" HC="0.10" NOx="1.01" PMx="0.39" fuel="904.58" electricity="0.00" noise="64.70" route="south_to_north" type="car" waiting="0.00" lane="south_in_0" pos="83.28" speed="13.11" angle="0.00" x="208.00" y="83.28"/>
        <vehicle id="flow_south_west_turn.0" eclass="HBEFA4/PC_petrol_Euro-4" CO2="8519.24" CO="67.29" HC="0.44" NOx="2.87" PMx="0.46" fuel="2761.80" electricity="0.00" noise="71.68" route="south_to_west" type="car" waiting="0.00" lane="south_in_2" pos="44.13" speed="11.89" angle="0.00" x="201.60" y="44.13"/>
        <vehicle id="flow_trucks_we.0" eclass="HBEFA4/RT_le7.5t_Euro-VI_A-C" CO2="10215.00" CO="2.90" HC="0.19" NOx="2.78" PMx="1.62" fuel="3282.73" electricity="0.00" noise="78.99" route="west_to_east" type="truck" waiting="0.00" lane="west_in_1" pos="37.98" speed="7.69" angle="90.00" x="37.98" y="195.20"/>
        <vehicle id="flow_west_east.0" eclass="HBEFA4/PC_petrol_Euro-4" CO2="1642.61" CO="2.62" HC="0.02" NOx="0.62" PMx="0.33" fuel="532.53" electricity="0.00" noise="62.86" route="west_to_east" type="car" waiting="0.00" lane="west_in_0" pos="75.42" speed="11.83" angle="90.00" x="75.42" y="192.00"/>
    </timestep>
    <timestep time="7.00">
        <vehicle id="flow_buses_ns.0" eclass="HBEFA4/UBus_Std_gt15-18t_Euro-VI_A-C" CO2="21491.00" CO="4.07" HC="0.30" NOx="5.40" PMx="1.64" fuel="6906.61" electricity="0.00" noise="76.04" route="north_to_south" type="bus" waiting="0.00" lane="north_in_1" pos="40.68" speed="7.18" angle="180.00" x="195.20" y="359.32"/>
        <vehicle id="flow_east_west.0" eclass="HBEFA4/PC_petrol_Euro-4" CO2="0.00" CO="0.00" HC="0.00" NOx="0.00" PMx="0.00" fuel="0.00" electricity="0.00" noise="62.76" route="east_to_west" type="car" waiting="0.00" lane="east_in_0" pos="99.17" speed="13.01" angle="270.00" x="300.83" y="208.00"/>
        <vehicle id="flow_north_east_turn.0" eclass="HBEFA4/PC_petrol_Euro-4" CO2="5450.86" CO="40.71" HC="0.27" NOx="1.89" PMx="0.42" fuel="1767.09" electricity="0.00" noise="67.35" route="north_to_east" type="car" waiting="0.00" lane="north_in_2" pos="57.31" speed="12.51" angle="180.00" x="198.40" y="342.69"/>
        <vehicle id="flow_north_south.0" eclass="HBEFA4/PC_petrol_Euro-4" CO2="0.00" CO="0.00" HC="0.00" NOx="0.00" PMx="0.00" fuel="0.00" electricity="0.00" noise="62.84" route="north_to_south" type="car" waiting="0.00" lane="north_in_0" pos="92.67" speed="12.69" angle="180.00" x="192.00" y="307.33"/>
        <vehicle id="flow_south_north.0" eclass="HBEFA4/PC_petrol_Euro-4" CO2="1191.31" CO="0.00" HC="0.00" NOx="0.46" PMx="0.35" fuel="386.22" electricity="0.00" noise="63.22" route="south_to_north" type="car" waiting="0.00" lane="south_in_0" pos="96.13" speed="12.85" angle="0.00" x="208.00" y="96.13"/>
        <vehicle id="flow_south_west_turn.0" eclass="HBEFA4/PC_petrol_Euro-4" CO2="5351.00" CO="41.51" HC="0.28" NOx="1.88" PMx="0.44" fuel="1734.71" electricity="0.00" noise="67.31" route="south_to_west" type="car" waiting="0.00" lane="south_in_2" pos="57.14" speed="13.01" angle="0.00" x="201.60" y="57.14"/>
        <vehicle id="flow_trucks_we.0" eclass="HBEFA4/RT_le7.5t_Euro-VI_A-C" CO2="10284.03" CO="2.60" HC="0.19" NOx="3.14" PMx="1.64" fuel="3304.95" electricity="0.00" noise="78.19" route="west_to_east" type="truck" waiting="0.00" lane="west_in_1" pos="46.87" speed="8.90" angle="90.00" x="46.87" y="195.20"/>
        <vehicle id="flow_west_east.0" eclass="HBEFA4/PC_petrol_Euro-4" CO2="0.00" CO="0.00" HC="0.00" NOx="0.00" PMx="0.00" fuel="0.00" electricity="0.00" noise="61.81" route="west_to_east" type="car" waiting="0.00" lane="west_in_0" pos="86.85" speed="11.42" angle="90.00" x="86.85" y="192.00"/>
    </timestep>
    <timestep time="8.00">
        <vehicle id="flow_buses_ns.0" eclass="HBEFA4/UBus_Std_gt15-18t_Euro-VI_A-C" CO2="24293.32" CO="4.21" HC="0.33" NOx="5.80" PMx="1.70" fuel="7807.22" electricity="0.00" noise="76.78" route="north_to_south" type="bus" waiting="0.00" lane="north_in_0" pos="48.87" speed="8.19" angle="180.00" x="192.00" y="351.13"/>
        <vehicle id="flow_east_west.0" eclass="HBEFA4/PC_petrol_Euro-4" CO2="3443.67" CO="22.67" HC="0.15" NOx="1.24" PMx="0.41" fuel="1116.39" electricity="0.00" noise="65.47" route="east_to_west" type="car" waiting="0.00" lane="east_in_0" pos="112.64" speed="13.46" angle="270.00" x="287.36" y="208.00"/>
        <vehicle id="flow_north_east_turn.0" eclass="HBEFA4/PC_petrol_Euro-4" CO2="0.00" CO="0.00" HC="0.00" NOx="0.00" PMx="0.00" fuel="0.00" electricity="0.00" noise="62.68" route="north_to_east" type="car" waiting="0.00" lane="north_in_2" pos="69.52" speed="12.22" angle="180.00" x="198.40" y="330.48"/>
        <vehicle id="flow_north_south.0" eclass="HBEFA4/PC_petrol_Euro-4" CO2="0.00" CO="0.00" HC="0.00" NOx="0.00" PMx="0.00" fuel="0.00" electricity="0.00" noise="62.61" route="north_to_south" type="car" waiting="0.00" lane="north_in_0" pos="105.00" speed="12.33" angle="180.00" x="192.00" y="295.00"/>
        <vehicle id="flow_south_north.0" eclass="HBEFA4/PC_petrol_Euro-4" CO2="3937.40" CO="27.97" HC="0.19" NOx="1.41" PMx="0.43" fuel="1276.45" electricity="0.00" noise="65.94" route="south_to_north" type="car" waiting="0.00" lane="south_in_0" pos="109.60" speed="13.47" angle="0.00" x="208.00" y="109.60"/>
        <vehicle id="flow_south_west_turn.0" eclass="HBEFA4/PC_petrol_Euro-4" CO2="1500.02" CO="1.64" HC="0.01" NOx="0.57" PMx="0.36" fuel="486.30" electricity="0.00" noise="63.46" route="south_to_west" type="car" waiting="0.00" lane="south_in_2" pos="69.99" speed="12.85" angle="0.00" x="201.60" y="69.99"/>
        <vehicle id="flow_trucks_we.0" eclass="HBEFA4/RT_le7.5t_Euro-VI_A-C" CO2="11454.76" CO="2.58" HC="0.20" NOx="3.64" PMx="1.68" fuel="3681.21" electricity="0.00" noise="78.63" route="west_to_east" type="truck" waiting="0.00" lane="west_in_1" pos="56.93" speed="10.06" angle="90.00" x="56.93" y="195.20"/>
        <vehicle id="flow_west_east.0" eclass="HBEFA4/PC_petrol_Euro-4" CO2="2814.02" CO="13.47" HC="0.09" NOx="1.00" PMx="0.35" fuel="912.27" electricity="0.00" noise="63.99" route="west_to_east" type="car" waiting="0.00" lane="west_in_0" pos="98.60" speed="11.76" angle="90.00" x="98.60" y="192.00"/>
    </timestep>
    <timestep time="9.00">
        <vehicle id="flow_buses_ns.0" eclass="HBEFA4/UBus_Std_gt15-18t_Euro-VI_A-C" CO2="30248.60" CO="4.67" HC="0.39" NOx="6.59" PMx="1.81" fuel="9721.13" electricity="0.00" noise="78.40" route="north_to_south" type="bus" waiting="0.00" lane="north_in_0" pos="58.26" speed="9.39" angle="180.00" x="192.00" y="341.74"/>
        <vehicle id="flow_east_west.0" eclass="HBEFA4/PC_petrol_Euro-4" CO2="2578.66" CO="13.63" HC="0.09" NOx="0.94" PMx="0.40" fuel="835.98" electricity="0.00" noise="64.81" route="east_to_west" type="car" waiting="0.00" lane="east_in_0" pos="126.27" speed="13.64" angle="270.00" x="273.73" y="208.00"/>
        <vehicle id="flow_north_east_turn.0" eclass="HBEFA4/PC_petrol_Euro-4" CO2="3104.08" CO="17.60" HC="0.12" NOx="1.11" PMx="0.38" fuel="1006.31" electricity="0.00" noise="64.73" route="north_to_east" type="car" waiting="0.00" lane="north_in_2" pos="82.13" speed="12.61" angle="180.00" x="198.40" y="317.87"/>
        <vehicle id="flow_north_south.0" eclass="HBEFA4/PC_petrol_Euro-4" CO2="2853.94" CO="15.13" HC="0.10" NOx="1.02" PMx="0.38" fuel="925.21" electricity="0.00" noise="64.49" route="north_to_south" type="car" waiting="0.00" lane="north_in_0" pos="117.64" speed="12.64" angle="180.00" x="192.00" y="282.36"/>
        <vehicle id="flow_north_south.1" eclass="HBEFA4/PC_petrol_Euro-4" CO2="2058.86" CO="8.20" HC="0.06" NOx="0.76" PMx="0.40" fuel="667.46" electricity="0.00" noise="64.57" route="north_to_south" type="car" waiting="0.00" lane="north_in_1" pos="4.60" speed="13.89" angle="180.00" x="195.20" y="395.40"/>
        <vehicle id="flow_south_north.0" eclass="HBEFA4/PC_petrol_Euro-4" CO2="0.00" CO="0.00" HC="0.00" NOx="0.00" PMx="0.00" fuel="0.00" electricity="0.00" noise="61.99" route="south_to_north" type="car" waiting="0.00" lane="south_in_0" pos="122.23" speed="12.64" angle="0.00" x="208.00" y="122.23"/>
        <vehicle id="flow_south_north.1" eclass="HBEFA4/PC_petrol_Euro-4" CO2="1932.94" CO="5.63" HC="0.04" NOx="0.71" PMx="0.35" fuel="626.64" electricity="0.00" noise="63.41" route="south_to_north" type="car" waiting="0.00" lane="south_in_1" pos="4.60" speed="12.26" angle="0.00" x="204.80" y="4.60"/>
        <vehicle id="flow_south_west_turn.0" eclass="HBEFA4/PC_petrol_Euro-4" CO2="1545.25" CO="2.04" HC="0.02" NOx="0.58" PMx="0.35" fuel="500.96" electricity="0.00" noise="63.39" route="south_to_west" type="car" waiting="0.00" lane="south_in_2" pos="82.70" speed="12.71" angle="0.00" x="201.60" y="82.70"/>
        <vehicle id="flow_trucks_we.0" eclass="HBEFA4/RT_le7.5t_Euro-VI_A-C" CO2="10852.07" CO="2.32" HC="0.20" NOx="3.79" PMx="1.71" fuel="3487.57" electricity="0.00" noise="77.95" route="west_to_east" type="truck" waiting="0.00" lane="west_in_0" pos="67.92" speed="10.99" angle="90.00" x="67.92" y="192.00"/>
        <vehicle id="flow_west_east.0" eclass="HBEFA4/PC_petrol_Euro-4" CO2="0.00" CO="0.00" HC="0.00" NOx="0.00" PMx="0.00" fuel="0.00" electricity="0.00" noise="60.59" route="west_to_east" type="car" waiting="0.00" lane="west_in_0" pos="109.56" speed="10.95" angle="90.00" x="109.56" y="192.00"/>
    </timestep>
    <timestep time="10.00">
        <vehicle id="flow_buses_ns.0" eclass="HBEFA4/UBus_Std_gt15-18t_Euro-VI_A-C" CO2="28393.74" CO="4.29" HC="0.38" NOx="6.75" PMx="1.86" fuel="9125.01" electricity="0.00" noise="77.80" route="north_to_south" type="bus" waiting="0.00" lane="north_in_0" pos="68.61" speed="10.35" angle="180.00" x="192.00" y="331.39"/>
        <vehicle id="flow_east_west.0" eclass="HBEFA4/PC_petrol_Euro-4" CO2="0.00" CO="0.00" HC="0.00" NOx="0.00" PMx="0.00" fuel="0.00" electricity="0.00" noise="61.92" route="east_to_west" type="car" waiting="0.00" lane="east_in_0" pos="138.99" speed="12.71" angle="270.00" x="261.01" y="208.00"/>
        <vehicle id="flow_north_east_turn.0" eclass="HBEFA4/PC_petrol_Euro-4" CO2="0.00" CO="0.00" HC="0.00" NOx="0.00" PMx="0.00" fuel="0.00" electricity="0.00" noise="61.95" route="north_to_east" type="car" waiting="0.00" lane="north_in_2" pos="94.17" speed="12.04" angle="180.00" x="198.40" y="305.83"/>
        <vehicle id="flow_north_south.0" eclass="HBEFA4/PC_petrol_Euro-4" CO2="1290.18" CO="0.00" HC="0.00" NOx="0.50" PMx="0.34" fuel="418.27" electricity="0.00" noise="62.97" route="north_to_south" type="car" waiting="0.00" lane="north_in_0" pos="130.05" speed="12.41" angle="180.00" x="192.00" y="269.95"/>
        <vehicle id="flow_north_south.1" eclass="HBEFA4/PC_petrol_Euro-4" CO2="0.00" CO="0.00" HC="0.00" NOx="0.00" PMx="0.00" fuel="0.00" electricity="0.00" noise="62.81" route="north_to_south" type="car" waiting="0.00" lane="north_in_1" pos="17.85" speed="13.25" angle="180.00" x="195.20" y="382.15"/>
        <vehicle id="flow_south_north.0" eclass="HBEFA4/PC_petrol_Euro-4" CO2="2771.46" CO="14.68" HC="0.10" NOx="1.00" PMx="0.38" fuel="898.48" electricity="0.00" noise="64.56" route="south_to_north" type="car" waiting="0.00" lane="south_in_0" pos="135.13" speed="12.90" angle="0.00" x="208.00" y="135.13"/>
        <vehicle id="flow_south_north.1" eclass="HBEFA4/PC_petrol_Euro-4" CO2="0.00" CO="0.00" HC="0.00" NOx="0.00" PMx="0.00" fuel="0.00" electricity="0.00" noise="61.45" route="south_to_north" type="car" waiting="0.00" lane="south_in_1" pos="16.21" speed="11.61" angle="0.00" x="204.80" y="16.21"/>
        <vehicle id="flow_south_west_turn.0" eclass="HBEFA4/PC_petrol_Euro-4" CO2="2065.37" CO="7.32" HC="0.05" NOx="0.76" PMx="0.36" fuel="669.57" electricity="0.00" noise="63.84" route="south_to_west" type="car" waiting="0.00" lane="south_in_2" pos="95.45" speed="12.74" angle="0.00" x="201.60" y="95.45"/>