<?xml version="1.0" encoding="UTF-8"?>

<!-- generated on 2026-03-23T19:29:45.966846+05:30 by Eclipse SUMO GUI 1.26.0
<sumoConfiguration xmlns:xsi="http://www.w3.org/2001/XMLSchema-instance" xsi:noNamespaceSchemaLocation="http://sumo.dlr.de/xsd/sumoConfiguration.xsd">

    <input>
        <net-file value="sumo/intersection.net.xml"/>
        <route-files value="sumo/intersection.rou.xml"/>
    </input>

    <output>
        <emission-output value="sumo/output/emissions.xml"/>
        <tripinfo-output value="sumo/output/tripinfo.xml"/>
    </output>

    <time>
        <begin value="0"/>
        <end value="3600"/>
        <step-length value="1.0"/>
    </time>

    <processing>
        <ignore-route-errors value="true"/>
        <collision.action value="warn"/>
        <time-to-teleport value="300"/>
        <max-depart-delay value="120"/>
    </processing>

    <report>
        <no-warnings value="true"/>
        <duration-log.statistics value="true"/>
        <no-step-log value="true"/>
    </report>

    <traci_server>
        <remote-port value="8814"/>
    </traci_server>

    <random_number>
        <seed value="42"/>
    </random_number>

    <gui_only>
        <quit-on-end value="false"/>
        <start value="true"/>
    </gui_only>

</sumoConfiguration>
-->

<tripinfos xmlns:xsi="http://www.w3.org/2001/XMLSchema-instance" xsi:noNamespaceSchemaLocation="http://sumo.dlr.de/xsd/tripinfo_file.xsd">
    <tripinfo id="flow_south_north.0" depart="0.00" departLane="south_in_0" departPos="4.60" departSpeed="13.89" departDelay="0.00" arrival="31.00" arrivalLane="north_out_0" arrivalPos="186.40" arrivalSpeed="13.40" duration="31.00" routeLength="395.40" waitingTime="0.00" waitingCount="0" stopTime="0.00" timeLoss="1.69" rerouteNo="0" devices="tripinfo_flow_south_north.0 emissions_flow_south_north.0" vType="car" speedFactor="1.07" vaporized="">
        <emissions CO_abs="354.15" CO2_abs="62424.97" HC_abs="2.39" PMx_abs="8.70" NOx_abs="22.62" fuel_abs="20237.48" electricity_abs="0.00"/>
    </tripinfo>
    <tripinfo id="flow_north_south.0" depart="0.00" departLane="north_in_0" departPos="4.60" departSpeed="13.17" departDelay="0.00" arrival="32.00" arrivalLane="south_out_0" arrivalPos="186.40" arrivalSpeed="12.38" duration="32.00" routeLength="395.40" waitingTime="0.00" waitingCount="0" stopTime="0.00" timeLoss="1.50" rerouteNo="0" devices="tripinfo_flow_north_south.0 emissions_flow_north_south.0" vType="car" speedFactor="0.95" vaporized="">
        <emissions CO_abs="298.86" CO2_abs="58870.63" HC_abs="2.01" PMx_abs="8.23" NOx_abs="21.26" fuel_abs="19085.23" electricity_abs="0.00"/>
    </tripinfo>
    <tripinfo id="flow_north_east_turn.0" depart="0.00" departLane="north_in_2" departPos="4.60" departSpeed="0.00" departDelay="0.00" arrival="38.00" arrivalLane="east_out_2" arrivalPos="186.40" arrivalSpeed="12.45" duration="38.00" routeLength="392.71" waitingTime="0.00" waitingCount="0" stopTime="0.00" timeLoss="6.15" rerouteNo="0" devices="tripinfo_flow_north_east_turn.0 emissions_flow_north_east_turn.0" vType="car" speedFactor="0.93" vaporized="">
        <emissions CO_abs="551.05" CO2_abs="110166.84" HC_abs="3.66" PMx_abs="9.48" NOx_abs="36.24" fuel_abs="35714.47" electricity_abs="0.00"/>
    </tripinfo>
    <tripinfo id="flow_north_south.1" depart="9.00" departLane="north_in_1" departPos="4.60" departSpeed="13.89" departDelay="0.00" arrival="40.00" arrivalLane="south_out_1" arrivalPos="186.40" arrivalSpeed="12.81" duration="31.00" routeLength="395.40" waitingTime="0.00" waitingCount="0" stopTime="0.00" timeLoss="1.66" rerouteNo="0" devices="tripinfo_flow_north_south.1 emissions_flow_north_south.1" vType="car" speedFactor="1.13" vaporized="">
        <emissions CO_abs="304.82" CO2_abs="57714.69" HC_abs="2.06" PMx_abs="8.61" NOx_abs="21.01" fuel_abs="18710.50" electricity_abs="0.00"/>
    </tripinfo>
    <tripinfo id="flow_buses_ns.0" depart="0.00" departLane="north_in_1" departPos="12.10" departSpeed="0.00" departDelay="0.00" arrival="41.00" arrivalLane="south_out_0" arrivalPos="186.40" arrivalSpeed="10.95" duration="41.00" routeLength="387.90" waitingTime="0.00" waitingCount="0" stopTime="0.00" timeLoss="5.41" rerouteNo="0" devices="tripinfo_flow_buses_ns.0 emissions_flow_buses_ns.0" vType="bus" speedFactor="1.00" vaporized="">
        <emissions CO_abs="105.84" CO2_abs="487411.91" HC_abs="9.11" PMx_abs="62.82" NOx_abs="195.97" fuel_abs="156636.72" electricity_abs="0.00"/>
    </tripinfo>
    <tripinfo id="flow_south_west_turn.0" depart="0.00" departLane="south_in_2" departPos="4.60" departSpeed="0.00" departDelay="0.00" arrival="44.00" arrivalLane="west_out_2" arrivalPos="186.40" arrivalSpeed="12.69" duration="44.00" routeLength="392.71" waitingTime="4.00" waitingCount="1" stopTime="0.00" timeLoss="15.25" rerouteNo="0" devices="tripinfo_flow_south_west_turn.0 emissions_flow_south_west_turn.0" vType="car" speedFactor="1.08" vaporized="">
        <emissions CO_abs="598.81" CO2_abs="124028.87" HC_abs="3.99" PMx_abs="9.36" NOx_abs="41.37" fuel_abs="40208.36" electricity_abs="0.00"/>
    </tripinfo>
    <tripinfo id="flow_south_north.1" depart="9.00" departLane="south_in_1" departPos="4.60" departSpeed="12.26" departDelay="0.00" arrival="44.00" arrivalLane="north_out_0" arrivalPos="186.40" arrivalSpeed="11.46" duration="35.00" routeLength="395.40" waitingTime="0.00" waitingCount="0" stopTime="0.00" timeLoss="2.17" rerouteNo="0" devices="tripinfo_flow_south_north.1 emissions_flow_south_north.1" vType="car" speedFactor="0.88" vaporized="">
        <emissions CO_abs="243.17" CO2_abs="60371.29" HC_abs="1.64" PMx_abs="8.38" NOx_abs="21.73" fuel_abs="19571.77" electricity_abs="0.00"/>
    </tripinfo>
    <tripinfo id="flow_north_south.2" depart="18.00" departLane="north_in_2" departPos="4.60" departSpeed="13.81" departDelay="0.00" arrival="48.00" arrivalLane="south_out_1" arrivalPos="186.40" arrivalSpeed="13.64" duration="30.00" routeLength="395.40" waitingTime="0.00" waitingCount="0" stopTime="0.00" timeLoss="1.34" rerouteNo="0" devices="tripinfo_flow_north_south.2 emissions_flow_north_south.2" vType="car" speedFactor="0.99" vaporized="">
        <emissions CO_abs="327.62" CO2_abs="59858.77" HC_abs="2.21" PMx_abs="8.69" NOx_abs="21.75" fuel_abs="19405.57" electricity_abs="0.00"/>
    </tripinfo>
    <tripinfo id="flow_south_north.2" depart="18.00" departLane="south_in_0" departPos="4.60" departSpeed="11.32" departDelay="0.00" arrival="55.00" arrivalLane="north_out_0" arrivalPos="186.40" arrivalSpeed="10.60" duration="37.00" routeLength="395.40" waitingTime="0.00" waitingCount="0" stopTime="0.00" timeLoss="1.98" rerouteNo="0" devices="tripinfo_flow_south_north.2 emissions_flow_south_north.2" vType="car" speedFactor="0.82" vaporized="">
        <emissions CO_abs="235.45" CO2_abs="59126.78" HC_abs="1.58" PMx_abs="7.27" NOx_abs="20.94" fuel_abs="19168.28" electricity_abs="0.00"/>
    </tripinfo>
    <tripinfo id="flow_south_north.3" depart="27.00" departLane="south_in_1" departPos="4.60" departSpeed="13.89" departDelay="0.00" arrival="57.00" arrivalLane="north_out_1" arrivalPos="186.40" arrivalSpeed="12.93" duration="30.00" routeLength="395.40" waitingTime="0.00" waitingCount="0" stopTime="0.00" timeLoss="1.43" rerouteNo="0" devices="tripinfo_flow_south_north.3 emissions_flow_south_north.3" vType="car" speedFactor="1.13" vaporized="">
        <emissions CO_abs="325.91" CO2_abs="56137.19" HC_abs="2.19" PMx_abs="7.99" NOx_abs="20.41" fuel_abs="18199.06" electricity_abs="0.00"/>
    </tripinfo>
    <tripinfo id="flow_north_south.3" depart="27.00" departLane="north_in_0" departPos="4.60" departSpeed="13.76" departDelay="0.00" arrival="58.00" arrivalLane="south_out_0" arrivalPos="186.40" arrivalSpeed="12.60" duration="31.00" routeLength="395.40" waitingTime="0.00" waitingCount="0" stopTime="0.00" timeLoss="1.59" rerouteNo="0" devices="tripinfo_flow_north_south.3 emissions_flow_north_south.3" vType="car" speedFactor="0.99" vaporized="">
        <emissions CO_abs="288.51" CO2_abs="56348.55" HC_abs="1.95" PMx_abs="8.50" NOx_abs="20.50" fuel_abs="18267.62" electricity_abs="0.00"/>
    </tripinfo>
    <tripinfo id="flow_east_west.0" depart="0.00" departLane="east_in_0" departPos="4.60" departSpeed="13.89" departDelay="0.00" arrival="63.00" arrivalLane="west_out_0" arrivalPos="186.40" arrivalSpeed="13.22" duration="63.00" routeLength="395.40" waitingTime="28.00" waitingCount="1" stopTime="0.00" timeLoss="34.37" rerouteNo="0" devices="tripinfo_flow_east_west.0 emissions_flow_east_west.0" vType="car" speedFactor="1.16" vaporized="">
        <emissions CO_abs="428.72" CO2_abs="124799.90" HC_abs="2.87" PMx_abs="8.72" NOx_abs="44.92" fuel_abs="40458.77" electricity_abs="0.00"/>
    </tripinfo>
    <tripinfo id="flow_west_east.1" depart="12.00" departLane="west_in_1" departPos="4.60" departSpeed="13.89" departDelay="0.00" arrival="63.00" arrivalLane="east_out_1" arrivalPos="186.40" arrivalSpeed="13.12" duration="51.00" routeLength="395.40" waitingTime="16.00" waitingCount="1" stopTime="0.00" timeLoss="22.46" rerouteNo="0" devices="tripinfo_flow_west_east.1 emissions_flow_west_east.1" vType="car" speedFactor="1.00" vaporized="">
        <emissions CO_abs="440.35" CO2_abs="109161.47" HC_abs="2.95" PMx_abs="9.02" NOx_abs="39.06" fuel_abs="35388.86" electricity_abs="0.00"/>
    </tripinfo>
    <tripinfo id="flow_east_west.2" depart="24.00" departLane="east_in_2" departPos="4.60" departSpeed="13.89" departDelay="0.00" arrival="64.00" arrivalLane="west_out_2" arrivalPos="186.40" arrivalSpeed="13.72" duration="40.00" routeLength="395.40" waitingTime="4.00" waitingCount="1" stopTime="0.00" timeLoss="10.69" rerouteNo="0" devices="tripinfo_flow_east_west.2 emissions_flow_east_west.2" vType="car" speedFactor="1.16" vaporized="">
        <emissions CO_abs="499.43" CO2_abs="93528.12" HC_abs="3.33" PMx_abs="8.38" NOx_abs="32.55" fuel_abs="30320.51" electricity_abs="0.00"/>
    </tripinfo>
    <tripinfo id="flow_west_east.0" depart="0.00" departLane="west_in_0" departPos="4.60" departSpeed="12.24" departDelay="0.00" arrival="65.00" arrivalLane="east_out_0" arrivalPos="186.40" arrivalSpeed="11.06" duration="65.00" routeLength="395.40" waitingTime="26.00" waitingCount="1" stopTime="0.00" timeLoss="32.48" rerouteNo="0" devices="tripinfo_flow_west_east.0 emissions_flow_west_east.0" vType="car" speedFactor="0.88" vaporized="">
        <emissions CO_abs="361.31" CO2_abs="121624.87" HC_abs="2.42" PMx_abs="8.31" NOx_abs="43.47" fuel_abs="39429.48" electricity_abs="0.00"/>
    </tripinfo>
    <tripinfo id="flow_east_west.1" depart="12.00" departLane="east_in_1" departPos="4.60" departSpeed="11.74" departDelay="0.00" arrival="66.00" arrivalLane="west_out_1" arrivalPos="186.40" arrivalSpeed="11.52" duration="54.00" routeLength="395.40" waitingTime="13.00" waitingCount="1" stopTime="0.00" timeLoss="19.86" rerouteNo="0" devices="tripinfo_flow_east_west.1 emissions_flow_east_west.1" vType="car" speedFactor="0.84" vaporized="">
        <emissions CO_abs="361.73" CO2_abs="102994.20" HC_abs="2.41" PMx_abs="7.95" NOx_abs="35.88" fuel_abs="33389.51" electricity_abs="0.00"/>
    </tripinfo>
    <tripinfo id="flow_east_west.3" depart="36.00" departLane="east_in_0" departPos="4.60" departSpeed="13.89" departDelay="0.00" arrival="66.00" arrivalLane="west_out_0" arrivalPos="186.40" arrivalSpeed="13.58" duration="30.00" routeLength="395.40" waitingTime="0.00" waitingCount="0" stopTime="0.00" timeLoss="1.21" rerouteNo="0" devices="tripinfo_flow_east_west.3 emissions_flow_east_west.3" vType="car" speedFactor="1.24" vaporized="">
        <emissions CO_abs="365.19" CO2_abs="62491.62" HC_abs="2.45" PMx_abs="8.86" NOx_abs="22.71" fuel_abs="20259.09" electricity_abs="0.00"/>
    </tripinfo>
    <tripinfo id="flow_west_east.3" depart="36.00" departLane="west_in_2" departPos="4.60" departSpeed="13.89" departDelay="0.00" arrival="66.00" arrivalLane="east_out_2" arrivalPos="186.40" arrivalSpeed="12.72" duration="30.00" routeLength="395.40" waitingTime="0.00" waitingCount="0" stopTime="0.00" timeLoss="1.23" rerouteNo="0" devices="tripinfo_flow_west_east.3 emissions_flow_west_east.3" vType="car" speedFactor="1.10" vaporized="">
        <emissions CO_abs="298.23" CO2_abs="56485.07" HC_abs="2.02" PMx_abs="8.72" NOx_abs="20.61" fuel_abs="18311.88" electricity_abs="0.00"/>
    </tripinfo>
    <tripinfo id="flow_west_east.2" depart="24.00" departLane="west_in_0" departPos="4.60" departSpeed="13.00" departDelay="0.00" arrival="67.00" arrivalLane="east_out_0" arrivalPos="186.40" arrivalSpeed="12.87" duration="43.00" routeLength="395.40" waitingTime="3.00" waitingCount="1" stopTime="0.00" timeLoss="12.19" rerouteNo="0" devices="tripinfo_flow_west_east.2 emissions_flow_west_east.2" vType="car" speedFactor="0.94" vaporized="">
        <emissions CO_abs="424.04" CO2_abs="87967.52" HC_abs="2.82" PMx_abs="7.17" NOx_abs="29.77" fuel_abs="28517.85" electricity_abs="0.00"/>
    </tripinfo>
    <tripinfo id="flow_trucks_we.0" depart="0.00" departLane="west_in_1" departPos="12.10" departSpeed="0.00" departDelay="0.00" arrival="68.00" arrivalLane="east_out_1" arrivalPos="186.40" arrivalSpeed="10.79" duration="68.00" routeLength="387.90" waitingTime="22.00" waitingCount="1" stopTime="0.00" timeLoss="32.55" rerouteNo="0" devices="tripinfo_flow_trucks_we.0 emissions_flow_trucks_we.0" vType="truck" speedFactor="1.01" vaporized="">
        <emissions CO_abs="96.48" CO2_abs="269974.19" HC_abs="7.31" PMx_abs="100.78" NOx_abs="102.63" fuel_abs="86761.73" electricity_abs="0.00"/>
    </tripinfo>
    <tripinfo id="flow_east_west.4" depart="48.00" departLane="east_in_1" departPos="4.60" departSpeed="13.89" departDelay="0.00" arrival="78.00" arrivalLane="west_out_0" arrivalPos="186.40" arrivalSpeed="12.90" duration="30.00" routeLength="395.40" waitingTime="0.00" waitingCount="0" stopTime="0.00" timeLoss="1.27" rerouteNo="0" devices="tripinfo_flow_east_west.4 emissions_flow_east_west.4" vType="car" speedFactor="1.08" vaporized="">
        <emissions CO_abs="327.59" CO2_abs="53871.49" HC_abs="2.20" PMx_abs="7.32" NOx_abs="19.55" fuel_abs="17464.52" electricity_abs="0.00"/>
    </tripinfo>
    <tripinfo id="flow_west_east.4" depart="48.00" departLane="west_in_0" departPos="4.60" departSpeed="13.05" departDelay="0.00" arrival="80.00" arrivalLane="east_out_0" arrivalPos="186.40" arrivalSpeed="12.97" duration="32.00" routeLength="395.40" waitingTime="0.00" waitingCount="0" stopTime="0.00" timeLoss="1.40" rerouteNo="0" devices="tripinfo_flow_west_east.4 emissions_flow_west_east.4" vType="car" speedFactor="0.94" vaporized="">
        <emissions CO_abs="306.72" CO2_abs="58506.44" HC_abs="2.06" PMx_abs="7.89" NOx_abs="21.04" fuel_abs="18967.14" electricity_abs="0.00"/>
    </tripinfo>
    <tripinfo id="flow_east_west.5" depart="60.00" departLane="east_in_0" departPos="4.60" departSpeed="13.89" departDelay="0.00" arrival="90.00" arrivalLane="west_out_0" arrivalPos="186.40" arrivalSpeed="13.77" duration="30.00" routeLength="395.40" waitingTime="0.00" waitingCount="0" stopTime="0.00" timeLoss="1.16" rerouteNo="0" devices="tripinfo_flow_east_west.5 emissions_flow_east_west.5" vType="car" speedFactor="1.08" vaporized="">
        <emissions CO_abs="349.69" CO2_abs="61526.87" HC_abs="2.36" PMx_abs="8.86" NOx_abs="22.34" fuel_abs="19946.34" electricity_abs="0.00"/>
    </tripinfo>
    <tripinfo id="flow_west_east.5" depart="60.00" departLane="west_in_1" departPos="4.60" departSpeed="13.09" departDelay="0.00" arrival="92.00" arrivalLane="east_out_0" arrivalPos="186.40" arrivalSpeed="12.40" duration="32.00" routeLength="395.40" waitingTime="0.00" waitingCount="0" stopTime="0.00" timeLoss="1.28" rerouteNo="0" devices="tripinfo_flow_west_east.5 emissions_flow_west_east.5" vType="car" speedFactor="0.94" vaporized="">
        <emissions CO_abs="296.73" CO2_abs="58600.06" HC_abs="2.00" PMx_abs="8.24" NOx_abs="21.16" fuel_abs="18997.52" electricity_abs="0.00"/>
    </tripinfo>
    <tripinfo id="flow_east_west.6" depart="72.00" departLane="east_in_1" departPos="4.60" departSpeed="13.89" departDelay="0.00" arrival="102.00" arrivalLane="west_out_0" arrivalPos="186.40" arrivalSpeed="12.86" duration="30.00" routeLength="395.40" waitingTime="0.00" waitingCount="0" stopTime="0.00" timeLoss="1.20" rerouteNo="0" devices="tripinfo_flow_east_west.6 emissions_flow_east_west.6" vType="car" speedFactor="1.15" vaporized="">
        <emissions CO_abs="333.24" CO2_abs="54659.99" HC_abs="2.24" PMx_abs="7.34" NOx_abs="19.81" fuel_abs="17720.14" electricity_abs="0.00"/>
    </tripinfo>
    <tripinfo id="flow_west_east.6" depart="72.00" departLane="west_in_0" departPos="4.60" departSpeed="13.89" departDelay="0.00" arrival="102.00" arrivalLane="east_out_0" arrivalPos="186.40" arrivalSpeed="13.27" duration="30.00" routeLength="395.40" waitingTime="0.00" waitingCount="0" stopTime="0.00" timeLoss="1.04" rerouteNo="0" devices="tripinfo_flow_west_east.6 emissions_flow_west_east.6" vType="car" speedFactor="1.06" vaporized="">
        <emissions CO_abs="280.70" CO2_abs="55222.01" HC_abs="1.91" PMx_abs="8.71" NOx_abs="20.15" fuel_abs="17902.42" electricity_abs="0.00"/>
    </tripinfo>
    <tripinfo id="flow_south_north.4" depart="36.00" departLane="south_in_0" departPos="4.60" departSpeed="13.89" departDelay="0.00" arrival="109.00" arrivalLane="north_out_0" arrivalPos="186.40" arrivalSpeed="13.78" duration="73.00" routeLength="395.40" waitingTime="37.00" waitingCount="1" stopTime="0.00" timeLoss="44.20" rerouteNo="0" devices="tripinfo_flow_south_north.4 emissions_flow_south_north.4" vType="car" speedFactor="1.00" vaporized="">
        <emissions CO_abs="491.85" CO2_abs="144779.56" HC_abs="3.28" PMx_abs="8.48" NOx_abs="53.13" fuel_abs="46935.95" electricity_abs="0.00"/>
    </tripinfo>
    <tripinfo id="flow_south_north.5" depart="45.00" departLane="south_in_1" departPos="4.60" departSpeed="13.89" departDelay="0.00" arrival="109.00" arrivalLane="north_out_1" arrivalPos="186.40" arrivalSpeed="12.95" duration="64.00" routeLength="395.40" waitingTime="28.00" waitingCount="1" stopTime="0.00" timeLoss="34.79" rerouteNo="0" devices="tripinfo_flow_south_north.5 emissions_flow_south_north.5" vType="car" speedFactor="1.05" vaporized="">
        <emissions CO_abs="449.75" CO2_abs="126897.48" HC_abs="3.01" PMx_abs="8.58" NOx_abs="46.19" fuel_abs="41138.75" electricity_abs="0.00"/>
    </tripinfo>
    <tripinfo id="flow_north_south.4" depart="36.00" departLane="north_in_1" departPos="4.60" departSpeed="12.18" departDelay="0.00" arrival="110.00" arrivalLane="south_out_0" arrivalPos="186.40" arrivalSpeed="11.89" duration="74.00" routeLength="395.40" waitingTime="36.00" waitingCount="1" stopTime="0.00" timeLoss="41.47" rerouteNo="0" devices="tripinfo_flow_north_south.4 emissions_flow_north_south.4" vType="car" speedFactor="0.88" vaporized="">
        <emissions CO_abs="390.55" CO2_abs="137834.24" HC_abs="2.60" PMx_abs="7.98" NOx_abs="50.14" fuel_abs="44684.39" electricity_abs="0.00"/>
    </tripinfo>
    <tripinfo id="flow_north_south.5" depart="45.00" departLane="north_in_0" departPos="4.60" departSpeed="12.14" departDelay="0.00" arrival="111.00" arrivalLane="south_out_0" arrivalPos="186.40" arrivalSpeed="11.21" duration="66.00" routeLength="395.40" waitingTime="27.00" waitingCount="1" stopTime="0.00" timeLoss="32.61" rerouteNo="0" devices="tripinfo_flow_north_south.5 emissions_flow_north_south.5" vType="car" speedFactor="0.87" vaporized="">
        <emissions CO_abs="331.36" CO2_abs="120853.75" HC_abs="2.21" PMx_abs="8.42" NOx_abs="43.70" fuel_abs="39179.49" electricity_abs="0.00"/>
    </tripinfo>
    <tripinfo id="flow_south_north.6" depart="54.00" departLane="south_in_0" departPos="4.60" departSpeed="13.86" departDelay="0.00" arrival="111.00" arrivalLane="north_out_0" arrivalPos="186.40" arrivalSpeed="13.06" duration="57.00" routeLength="395.40" waitingTime="20.00" waitingCount="1" stopTime="0.00" timeLoss="28.39" rerouteNo="0" devices="tripinfo_flow_south_north.6 emissions_flow_south_north.6" vType="car" speedFactor="1.00" vaporized="">
        <emissions CO_abs="450.25" CO2_abs="116177.34" HC_abs="3.01" PMx_abs="8.25" NOx_abs="41.47" fuel_abs="37663.36" electricity_abs="0.00"/>
    </tripinfo>
    <tripinfo id="flow_north_south.6" depart="54.00" departLane="north_in_1" departPos="4.60" departSpeed="12.59" departDelay="0.00" arrival="112.00" arrivalLane="south_out_1" arrivalPos="186.40" arrivalSpeed="12.46" duration="58.00" routeLength="395.40" waitingTime="18.00" waitingCount="1" stopTime="0.00" timeLoss="26.52" rerouteNo="0" devices="tripinfo_flow_north_south.6 emissions_flow_north_south.6" vType="car" speedFactor="0.91" vaporized="">
        <emissions CO_abs="454.32" CO2_abs="117036.28" HC_abs="3.02" PMx_abs="7.78" NOx_abs="41.12" fuel_abs="37941.75" electricity_abs="0.00"/>
    </tripinfo>
    <tripinfo id="flow_south_north.7" depart="63.00" departLane="south_in_1" departPos="4.60" departSpeed="11.44" departDelay="0.00" arrival="114.00" arrivalLane="north_out_0" arrivalPos="186.40" arrivalSpeed="10.45" duration="51.00" routeLength="395.40" waitingTime="7.00" waitingCount="1" stopTime="0.00" timeLoss="15.65" rerouteNo="0" devices="tripinfo_flow_south_north.7 emissions_flow_south_north.7" vType="car" speedFactor="0.82" vaporized="">
        <emissions CO_abs="330.49" CO2_abs="96395.09" HC_abs="2.21" PMx_abs="8.13" NOx_abs="33.10" fuel_abs="31250.12" electricity_abs="0.00"/>
    </tripinfo>
    <tripinfo id="flow_north_south.8" depart="72.00" departLane="north_in_1" departPos="4.60" departSpeed="13.89" departDelay="0.00" arrival="114.00" arrivalLane="south_out_1" arrivalPos="186.40" arrivalSpeed="12.91" duration="42.00" routeLength="395.40" waitingTime="2.00" waitingCount="1" stopTime="0.00" timeLoss="13.32" rerouteNo="0" devices="tripinfo_flow_north_south.8 emissions_flow_north_south.8" vType="car" speedFactor="1.01" vaporized="">
        <emissions CO_abs="552.34" CO2_abs="98158.21" HC_abs="3.67" PMx_abs="7.42" NOx_abs="33.55" fuel_abs="31821.48" electricity_abs="0.00"/>
    </tripinfo>
    <tripinfo id="flow_south_north.9" depart="81.00" departLane="south_in_0" departPos="4.60" departSpeed="12.73" departDelay="0.00" arrival="115.00" arrivalLane="north_out_1" arrivalPos="186.40" arrivalSpeed="11.55" duration="34.00" routeLength="395.40" waitingTime="0.00" waitingCount="0" stopTime="0.00" timeLoss="2.60" rerouteNo="0" devices="tripinfo_flow_south_north.9 emissions_flow_south_north.9" vType="car" speedFactor="0.92" vaporized="">
        <emissions CO_abs="317.67" CO2_abs="64479.88" HC_abs="2.13" PMx_abs="8.15" NOx_abs="22.98" fuel_abs="20903.66" electricity_abs="0.00"/>
    </tripinfo>
    <tripinfo id="flow_buses_ns.1" depart="60.00" departLane="north_in_0" departPos="12.10" departSpeed="0.00" departDelay="0.00" arrival="116.00" arrivalLane="south_out_0" arrivalPos="186.40" arrivalSpeed="10.89" duration="56.00" routeLength="387.90" waitingTime="4.00" waitingCount="1" stopTime="0.00" timeLoss="20.35" rerouteNo="0" devices="tripinfo_flow_buses_ns.1 emissions_flow_buses_ns.1" vType="bus" speedFactor="1.00" vaporized="">
        <emissions CO_abs="150.45" CO2_abs="645881.89" HC_abs="11.79" PMx_abs="82.48" NOx_abs="257.32" fuel_abs="207564.99" electricity_abs="0.00"/>
    </tripinfo>
    <tripinfo id="flow_north_east_turn.1" depart="45.00" departLane="north_in_2" departPos="4.60" departSpeed="0.00" departDelay="0.00" arrival="118.00" arrivalLane="east_out_2" arrivalPos="186.40" arrivalSpeed="12.60" duration="73.00" routeLength="392.71" waitingTime="29.00" waitingCount="2" stopTime="0.00" timeLoss="43.81" rerouteNo="0" devices="tripinfo_flow_north_east_turn.1 emissions_flow_north_east_turn.1" vType="car" speedFactor="1.12" vaporized="">
        <emissions CO_abs="571.04" CO2_abs="164383.33" HC_abs="3.80" PMx_abs="8.94" NOx_abs="56.82" fuel_abs="53290.97" electricity_abs="0.00"/>
    </tripinfo>
    <tripinfo id="flow_north_south.9" depart="81.00" departLane="north_in_2" departPos="4.60" departSpeed="13.89" departDelay="0.00" arrival="118.00" arrivalLane="south_out_1" arrivalPos="186.40" arrivalSpeed="13.77" duration="37.00" routeLength="395.40" waitingTime="0.00" waitingCount="0" stopTime="0.00" timeLoss="8.01" rerouteNo="0" devices="tripinfo_flow_north_south.9 emissions_flow_north_south.9" vType="car" speedFactor="1.06" vaporized="">
        <emissions CO_abs="479.77" CO2_abs="86590.15" HC_abs="3.20" PMx_abs="8.33" NOx_abs="29.50" fuel_abs="28071.32" electricity_abs="0.00"/>
    </tripinfo>
    <tripinfo id="flow_north_south.7" depart="63.00" departLane="north_in_2" departPos="4.60" departSpeed="13.89" departDelay="0.00" arrival="120.00" arrivalLane="south_out_2" arrivalPos="186.40" arrivalSpeed="12.85" duration="57.00" routeLength="395.40" waitingTime="14.00" waitingCount="2" stopTime="0.00" timeLoss="27.80" rerouteNo="0" devices="tripinfo_flow_north_south.7 emissions_flow_north_south.7" vType="car" speedFactor="1.08" vaporized="">
        <emissions CO_abs="466.84" CO2_abs="119439.04" HC_abs="3.12" PMx_abs="9.08" NOx_abs="41.99" fuel_abs="38720.69" electricity_abs="0.00"/>
    </tripinfo>
